 Output coordinates in angstroms (scale by  1.889725989 to convert to a.u.)

  No.       Tag          Charge          X              Y              Z
 ---- ---------------- ---------- -------------- -------------- --------------
    1 C                    6.0000     0.23680554     1.41416660     0.00000000
    2 C                    6.0000    -0.23680554    -1.41416660     0.00000000
    3 C                    6.0000     1.31675086     0.48901061     0.00000000
    4 C                    6.0000    -1.31675086    -0.48901061     0.00000000
    5 C                    6.0000     1.08679847    -0.89447642     0.00000000
    6 C                    6.0000    -1.08679847     0.89447642     0.00000000
    7 H                    1.0000     2.34780221     0.86863451     0.00000000
    8 H                    1.0000    -2.34780221    -0.86863451     0.00000000
    9 H                    1.0000     1.93764188    -1.58693865     0.00000000
   10 H                    1.0000    -1.93764188     1.58693865     0.00000000
   11 C                    6.0000    -0.53450789    -2.88212824     0.00000000
   12 C                    6.0000     0.53450789     2.88212824     0.00000000
   13 H                    1.0000    -1.60655769    -3.13289308     0.00000000
   14 H                    1.0000     1.60655769     3.13289308     0.00000000
   15 C                    6.0000     0.36419263    -3.88177971     0.00000000
   16 C                    6.0000    -0.36419263     3.88177971     0.00000000
   17 H                    1.0000     1.44522900    -3.70144241     0.00000000
   18 H                    1.0000    -1.44522900     3.70144241     0.00000000
   19 H                    1.0000     0.04815351    -4.93192286     0.00000000
   20 H                    1.0000    -0.04815351     4.93192286     0.00000000

         Total DFT energy =     -382.308240734642

                       DFT Final Molecular Orbital Analysis
                       ------------------------------------

 Vector    1  Occ=2.000000D+00  E=-1.002024D+01

 Vector    2  Occ=2.000000D+00  E=-1.002019D+01

 Vector    3  Occ=2.000000D+00  E=-1.000793D+01

 Vector    4  Occ=2.000000D+00  E=-1.000793D+01

 Vector    5  Occ=2.000000D+00  E=-1.000689D+01

 Vector    6  Occ=2.000000D+00  E=-1.000688D+01

 Vector    7  Occ=2.000000D+00  E=-1.000624D+01

 Vector    8  Occ=2.000000D+00  E=-1.000609D+01

 Vector    9  Occ=2.000000D+00  E=-9.992164D+00

 Vector   10  Occ=2.000000D+00  E=-9.992163D+00

 Vector   11  Occ=2.000000D+00  E=-8.094662D-01

 Vector   12  Occ=2.000000D+00  E=-7.539348D-01

 Vector   13  Occ=2.000000D+00  E=-7.178614D-01

 Vector   14  Occ=2.000000D+00  E=-6.999224D-01

 Vector   15  Occ=2.000000D+00  E=-6.673152D-01

 Vector   16  Occ=2.000000D+00  E=-5.885093D-01

 Vector   17  Occ=2.000000D+00  E=-5.591516D-01

 Vector   18  Occ=2.000000D+00  E=-5.314208D-01

 Vector   19  Occ=2.000000D+00  E=-5.099374D-01

 Vector   20  Occ=2.000000D+00  E=-4.575994D-01

 Vector   21  Occ=2.000000D+00  E=-4.391971D-01

 Vector   22  Occ=2.000000D+00  E=-4.110182D-01

 Vector   23  Occ=2.000000D+00  E=-3.976934D-01

 Vector   24  Occ=2.000000D+00  E=-3.959385D-01

 Vector   25  Occ=2.000000D+00  E=-3.744297D-01

 Vector   26  Occ=2.000000D+00  E=-3.509367D-01

 Vector   27  Occ=2.000000D+00  E=-3.470152D-01

 Vector   28  Occ=2.000000D+00  E=-3.244703D-01

 Vector   29  Occ=2.000000D+00  E=-3.110647D-01

 Vector   30  Occ=2.000000D+00  E=-2.929833D-01

 Vector   31  Occ=2.000000D+00  E=-2.874966D-01

 Vector   32  Occ=2.000000D+00  E=-2.634557D-01

 Vector   33  Occ=2.000000D+00  E=-2.123364D-01

 Vector   34  Occ=2.000000D+00  E=-1.951682D-01

 Vector   35  Occ=2.000000D+00  E=-1.529966D-01

 Vector   36  Occ=0.000000D+00  E= 3.750916D-02

 Vector   37  Occ=0.000000D+00  E= 9.011732D-02

 Vector   38  Occ=0.000000D+00  E= 1.107280D-01

 Vector   39  Occ=0.000000D+00  E= 1.822016D-01

 Vector   40  Occ=0.000000D+00  E= 2.723015D-01

 Vector   41  Occ=0.000000D+00  E= 3.324848D-01

 Vector   42  Occ=0.000000D+00  E= 3.406448D-01

 Vector   43  Occ=0.000000D+00  E= 3.795219D-01

 Vector   44  Occ=0.000000D+00  E= 3.812902D-01

 Vector   45  Occ=0.000000D+00  E= 4.103420D-01

 Vector   46  Occ=0.000000D+00  E= 4.112338D-01

 Vector   47  Occ=0.000000D+00  E= 4.258026D-01

 Vector   48  Occ=0.000000D+00  E= 4.393595D-01

 Vector   49  Occ=0.000000D+00  E= 4.537211D-01

 Vector   50  Occ=0.000000D+00  E= 4.783353D-01

 Vector   51  Occ=0.000000D+00  E= 5.255620D-01

 Vector   52  Occ=0.000000D+00  E= 5.463507D-01

 Vector   53  Occ=0.000000D+00  E= 5.764357D-01

 Vector   54  Occ=0.000000D+00  E= 5.984380D-01

 Vector   55  Occ=0.000000D+00  E= 6.248973D-01

 Vector   56  Occ=0.000000D+00  E= 6.398332D-01

 Vector   57  Occ=0.000000D+00  E= 6.828367D-01

 Vector   58  Occ=0.000000D+00  E= 7.173573D-01

 Vector   59  Occ=0.000000D+00  E= 7.790412D-01

 Vector   60  Occ=0.000000D+00  E= 7.942624D-01

     Multipole analysis of the density
     ---------------------------------

     L   x y z        total         alpha         beta         nuclear
     -   - - -        -----         -----         ----         -------
     0   0 0 0     -0.000000    -35.000000    -35.000000     70.000000

     1   1 0 0      0.000000      0.000000      0.000000      0.000000
     1   0 1 0      0.000000      0.000000      0.000000      0.000000
     1   0 0 1     -0.000000     -0.000000     -0.000000      0.000000

     2   2 0 0    -37.347173   -141.071523   -141.071523    244.795872
     2   1 1 0      0.066525      2.848776      2.848776     -5.631027
     2   1 0 1     -0.000000     -0.000000     -0.000000      0.000000
     2   0 2 0    -37.714769   -767.339035   -767.339035   1496.963300
     2   0 1 1     -0.000000     -0.000000     -0.000000      0.000000

 Zero-Point correction to Energy  =  111.089 kcal/mol  (  0.177031 au)
 Thermal correction to Energy     =  116.660 kcal/mol  (  0.185909 au)
 Thermal correction to Enthalpy   =  117.252 kcal/mol  (  0.186853 au)
 Total Entropy                    =   91.890 cal/mol-K
   - Translational                =   40.484 cal/mol-K (mol. weight = 130.0782)
   - Rotational                   =   28.131 cal/mol-K (symmetry #  =        2)
   - Vibrational                  =   23.276 cal/mol-K
   - Translational                  =    2.979 cal/mol-K
   - Rotational                     =    2.979 cal/mol-K
   - Vibrational                    =   27.564 cal/mol-K
 P.Frequency       -0.00        0.00        0.00        0.00        0.00        0.00
 P.Frequency       49.01       81.56      151.70      181.04      265.73      300.97
 P.Frequency      407.92      424.39      468.98      487.92      578.84      657.33
 P.Frequency      673.47      707.33      735.11      810.68      862.52      895.31
 P.Frequency      896.43      980.90      980.97     1017.73     1036.48     1073.56
 P.Frequency     1102.04     1107.66     1107.69     1110.62     1203.74     1260.97
 P.Frequency     1284.27     1296.19     1350.01     1398.54     1422.11     1427.49
 P.Frequency     1514.54     1565.41     1575.24     1639.65     1690.93     1738.51
 P.Frequency     1814.83     1815.80     3394.04     3394.77     3432.83     3432.83
 P.Frequency     3447.88     3451.35     3471.32     3474.29     3546.60     3546.65

 Normal Eigenvalue ||           Projected Infra Red Intensities
  Mode   [cm**-1]  || [atomic units] [(debye/angs)**2] [(KM/mol)] [arbitrary]
 ------ ---------- || -------------- ----------------- ---------- -----------
    1       -0.000 ||    0.000000           0.000         0.000       0.000
    2        0.000 ||    0.000000           0.000         0.000       0.000
    3        0.000 ||    0.000000           0.000         0.000       0.000
    4        0.000 ||    0.000000           0.000         0.000       0.000
    5        0.000 ||    0.000000           0.000         0.000       0.000
    6        0.000 ||    0.000000           0.000         0.000       0.000
    7       49.010 ||    0.000030           0.001         0.030       0.068
    8       81.563 ||    0.000000           0.000         0.000       0.000
    9      151.698 ||    0.000359           0.008         0.350       0.797
   10      181.038 ||    0.000273           0.006         0.266       0.607
   11      265.733 ||    0.000000           0.000         0.000       0.000
   12      300.969 ||    0.000000           0.000         0.000       0.000
   13      407.917 ||    0.000000           0.000         0.000       0.000
   14      424.393 ||    0.000104           0.002         0.101       0.230
   15      468.977 ||    0.006013           0.139         5.862      13.348
   16      487.917 ||    0.001992           0.046         1.941       4.421
   17      578.842 ||    0.000000           0.000         0.000       0.000
   18      657.328 ||    0.000000           0.000         0.000       0.000
   19      673.470 ||    0.000000           0.000         0.000       0.000
   20      707.330 ||    0.000476           0.011         0.464       1.058
   21      735.110 ||    0.004426           0.102         4.315       9.826
   22      810.677 ||    0.000000           0.000         0.000       0.000
   23      862.518 ||    0.000000           0.000         0.000       0.000
   24      895.309 ||    0.000000           0.000         0.000       0.000
   25      896.429 ||    0.026919           0.621        26.242      59.756
   26      980.901 ||    0.000000           0.000         0.000       0.000
   27      980.975 ||    0.037514           0.865        36.571      83.276
   28     1017.729 ||    0.000000           0.000         0.000       0.000
   29     1036.478 ||    0.000007           0.000         0.007       0.016
   30     1073.558 ||    0.000500           0.012         0.487       1.110
   31     1102.043 ||    0.009063           0.209         8.835      20.119
   32     1107.662 ||    0.000000           0.000         0.000       0.000
   33     1107.685 ||    0.013502           0.311        13.162      29.972
   34     1110.621 ||    0.000000           0.000         0.000       0.000
   35     1203.737 ||    0.001529           0.035         1.490       3.394
   36     1260.965 ||    0.000000           0.000         0.000       0.000
   37     1284.270 ||    0.000053           0.001         0.052       0.118
   38     1296.189 ||    0.000000           0.000         0.000       0.000
   39     1350.007 ||    0.009261           0.214         9.028      20.557
   40     1398.542 ||    0.000000           0.000         0.000       0.000
   41     1422.113 ||    0.008710           0.201         8.491      19.335
   42     1427.487 ||    0.000000           0.000         0.000       0.000
   43     1514.545 ||    0.019393           0.447        18.905      43.050
   44     1565.407 ||    0.000000           0.000         0.000       0.000
   45     1575.243 ||    0.000596           0.014         0.581       1.323
   46     1639.653 ||    0.015696           0.362        15.302      34.843
   47     1690.932 ||    0.000000           0.000         0.000       0.000
   48     1738.513 ||    0.000000           0.000         0.000       0.000
   49     1814.826 ||    0.000000           0.000         0.000       0.000
   50     1815.798 ||    0.001539           0.036         1.500       3.416
   51     3394.043 ||    0.101447           2.340        98.896     225.197
   52     3394.772 ||    0.000000           0.000         0.000       0.000
   53     3432.831 ||    0.003773           0.087         3.678       8.376
   54     3432.835 ||    0.000000           0.000         0.000       0.000
   55     3447.881 ||    0.001330           0.031         1.297       2.953
   56     3451.354 ||    0.000000           0.000         0.000       0.000
   57     3471.324 ||    0.005760           0.133         5.615      12.786
   58     3474.287 ||    0.000000           0.000         0.000       0.000
   59     3546.602 ||    0.000023           0.001         0.023       0.052
   60     3546.649 ||    0.000000           0.000         0.000       0.000
 ----------------------------------------------------------------------------

 Total times  cpu:      287.4s     wall:      288.0s
