                         Program Version 6.0.1  -  RELEASE   -
|  1> !  hf sto-3g usesym
|  2>
|  3> * xyz 1 2
|  4>  C       -1.4152533224   0.2302217854   0.0000000000
|  5>  C        1.4152533224  -0.2302217854   0.0000000000
|  6>  C       -0.4951331558   1.3144608674   0.0000000000
|  7>  C        0.4951331558  -1.3144608674   0.0000000000
|  8>  C        0.8894090436   1.0909493743   0.0000000000
|  9>  C       -0.8894090436  -1.0909493743   0.0000000000
| 10>  H       -0.8795511985   2.3437343748   0.0000000000
| 11>  H        0.8795511985  -2.3437343748   0.0000000000
| 12>  H        1.5779041557   1.9450061275   0.0000000000
| 13>  H       -1.5779041557  -1.9450061275   0.0000000000
| 14>  C        2.8845844962  -0.5210893778   0.0000000000
| 15>  C       -2.8845844962   0.5210893778   0.0000000000
| 16>  H        3.1403356810  -1.5919605685   0.0000000000
| 17>  H       -3.1403356810   1.5919605685   0.0000000000
| 18>  C        3.8800428103   0.3822535424   0.0000000000
| 19>  C       -3.8800428103  -0.3822535424   0.0000000000
| 20>  H        3.6946765858   1.4624389570   0.0000000000
| 21>  H       -3.6946765858  -1.4624389570   0.0000000000
| 22>  H        4.9316453546   0.0711049543   0.0000000000
| 23>  H       -4.9316453546  -0.0711049543   0.0000000000
| 24> *
| 25> %pal
| 26>  nprocs 4
| 27> end
| 28> %MaxCore 700
| 29>
| 30>                          ****END OF INPUT****

CARTESIAN COORDINATES (ANGSTROEM)
---------------------------------
  C     -1.415253    0.230222    0.000000
  C      1.415253   -0.230222    0.000000
  C     -0.495133    1.314461    0.000000
  C      0.495133   -1.314461    0.000000
  C      0.889409    1.090949    0.000000
  C     -0.889409   -1.090949    0.000000
  H     -0.879551    2.343734    0.000000
  H      0.879551   -2.343734    0.000000
  H      1.577904    1.945006    0.000000
  H     -1.577904   -1.945006    0.000000
  C      2.884584   -0.521089    0.000000
  C     -2.884584    0.521089    0.000000
  H      3.140336   -1.591961    0.000000
  H     -3.140336    1.591961    0.000000
  C      3.880043    0.382254    0.000000
  C     -3.880043   -0.382254    0.000000
  H      3.694677    1.462439    0.000000
  H     -3.694677   -1.462439    0.000000
  H      4.931645    0.071105    0.000000
  H     -4.931645   -0.071105    0.000000

 Total Charge           Charge          ....    1
 Multiplicity           Mult            ....    2
 Number of Electrons    NEL             ....   69
 Basis Dimension        Dim             ....   60

ORBITAL ENERGIES
----------------
                 SPIN UP ORBITALS
  NO   OCC          E(Eh)            E(eV)    Irrep
   0   1.0000     -11.307857      -307.7024    1-Bu
   1   1.0000     -11.307794      -307.7007    1-Ag
   2   1.0000     -11.263686      -306.5005    2-Bu
   3   1.0000     -11.263602      -306.4982    2-Ag
   4   1.0000     -11.260962      -306.4264    3-Bu
   5   1.0000     -11.260889      -306.4244    3-Ag
   6   1.0000     -11.221042      -305.3401    4-Bu
   7   1.0000     -11.221041      -305.3401    4-Ag
   8   1.0000     -11.216698      -305.2219    5-Bu
   9   1.0000     -11.216698      -305.2219    5-Ag
  10   1.0000      -1.326026       -36.0830    6-Ag
  11   1.0000      -1.237138       -33.6642    6-Bu
  12   1.0000      -1.170211       -31.8431    7-Ag
  13   1.0000      -1.166072       -31.7304    7-Bu
  14   1.0000      -1.131028       -30.7768    8-Bu
  15   1.0000      -1.010886       -27.5076    8-Ag
  16   1.0000      -0.982099       -26.7243    9-Ag
  17   1.0000      -0.911709       -24.8089    9-Bu
  18   1.0000      -0.900218       -24.4962   10-Ag
  19   1.0000      -0.820712       -22.3327   11-Ag
  20   1.0000      -0.807003       -21.9597   10-Bu
  21   1.0000      -0.778389       -21.1810   11-Bu
  22   1.0000      -0.759723       -20.6731   12-Bu
  23   1.0000      -0.735522       -20.0146   12-Ag
  24   1.0000      -0.735293       -20.0083   13-Bu
  25   1.0000      -0.697148       -18.9704   14-Bu
  26   1.0000      -0.694735       -18.9047    1-Au
  27   1.0000      -0.680020       -18.5043   13-Ag
  28   1.0000      -0.636786       -17.3278   14-Ag
  29   1.0000      -0.632277       -17.2051   15-Bu
  30   1.0000      -0.616344       -16.7716   15-Ag
  31   1.0000      -0.596579       -16.2338    1-Bg
  32   1.0000      -0.531880       -14.4732    2-Au
  33   1.0000      -0.491267       -13.3680    2-Bg
  34   1.0000      -0.479275       -13.0417    3-Bg
  35   0.0000      -0.047560        -1.2942    3-Au
  36   0.0000       0.061980         1.6866    4-Au
  37   0.0000       0.131818         3.5870    4-Bg
  38   0.0000       0.208862         5.6834    5-Au
  39   0.0000       0.297051         8.0832    5-Bg

                 SPIN DOWN ORBITALS
  NO   OCC          E(Eh)            E(eV)    Irrep
   0   1.0000     -11.296091      -307.3823    1-Bu
   1   1.0000     -11.296051      -307.3812    1-Ag
   2   1.0000     -11.264539      -306.5237    2-Bu
   3   1.0000     -11.264462      -306.5216    2-Ag
   4   1.0000     -11.262577      -306.4703    3-Bu
   5   1.0000     -11.262521      -306.4688    3-Ag
   6   1.0000     -11.237156      -305.7786    4-Ag
   7   1.0000     -11.237156      -305.7786    4-Bu
   8   1.0000     -11.196985      -304.6855    5-Ag
   9   1.0000     -11.196985      -304.6855    5-Bu
  10   1.0000      -1.308236       -35.5989    6-Ag
  11   1.0000      -1.222373       -33.2625    6-Bu
  12   1.0000      -1.169605       -31.8266    7-Bu
  13   1.0000      -1.165501       -31.7149    7-Ag
  14   1.0000      -1.089852       -29.6564    8-Bu
  15   1.0000      -0.994271       -27.0555    8-Ag
  16   1.0000      -0.966705       -26.3054    9-Ag
  17   1.0000      -0.908101       -24.7107    9-Bu
  18   1.0000      -0.893188       -24.3049   10-Ag
  19   1.0000      -0.819862       -22.3096   11-Ag
  20   1.0000      -0.803853       -21.8740   10-Bu
  21   1.0000      -0.771294       -20.9880   11-Bu
  22   1.0000      -0.753704       -20.5093   12-Bu
  23   1.0000      -0.735421       -20.0118   13-Bu
  24   1.0000      -0.731557       -19.9067   12-Ag
  25   1.0000      -0.691313       -18.8116   14-Bu
  26   1.0000      -0.677216       -18.4280   13-Ag
  27   1.0000      -0.644443       -17.5362    1-Au
  28   1.0000      -0.632289       -17.2055   14-Ag
  29   1.0000      -0.628287       -17.0965   15-Bu
  30   1.0000      -0.614943       -16.7335   15-Ag
  31   1.0000      -0.561279       -15.2732    1-Bg
  32   1.0000      -0.502041       -13.6612    2-Bg
  33   1.0000      -0.489064       -13.3081    2-Au
  34   0.0000      -0.148883        -4.0513    3-Bg
  35   0.0000       0.074293         2.0216    3-Au
  36   0.0000       0.085418         2.3243    4-Au
  37   0.0000       0.176073         4.7912    4-Bg
  38   0.0000       0.238877         6.5002    5-Au

MULLIKEN ATOMIC CHARGES AND SPIN POPULATIONS
--------------------------------------------
   0 C :    0.091231    0.491170
   1 C :    0.091231    0.491170
   2 C :   -0.016576   -0.059730
   3 C :   -0.016576   -0.059730
   4 C :   -0.016552   -0.029194
   5 C :   -0.016552   -0.029194
   6 H :    0.119643    0.003231
   7 H :    0.119643    0.003231
   8 H :    0.118214    0.001141
   9 H :    0.118214    0.001141
  10 C :   -0.031570   -0.658304
  11 C :   -0.031570   -0.658304
  12 H :    0.100841    0.047299
  13 H :    0.100841    0.047299
  14 C :   -0.070693    0.827241
  15 C :   -0.070693    0.827241
  16 H :    0.091671   -0.060609
  17 H :    0.091671   -0.060609
  18 H :    0.113790   -0.062246
  19 H :    0.113790   -0.062246
Sum of atomic charges         :    1.0000000

LOEWDIN ATOMIC CHARGES AND SPIN POPULATIONS
-------------------------------------------
   0 C :    0.123339    0.442480
   1 C :    0.123339    0.442480
   2 C :    0.018461   -0.045070
   3 C :    0.018461   -0.045070
   4 C :    0.019966   -0.017715
   5 C :    0.019966   -0.017715
   6 H :    0.074777    0.002419
   7 H :    0.074777    0.002419
   8 H :    0.074086    0.000875
   9 H :    0.074086    0.000875
  10 C :    0.002222   -0.577952
  11 C :    0.002222   -0.577952
  12 H :    0.060053    0.034882
  13 H :    0.060053    0.034882
  14 C :   -0.000872    0.749962
  15 C :   -0.000872    0.749962
  16 H :    0.055562   -0.044242
  17 H :    0.055562   -0.044242
  18 H :    0.072407   -0.045641
  19 H :    0.072407   -0.045641

  Mayer bond orders larger than 0.100000
B(  0-C ,  2-C ) :   1.2293 B(  0-C ,  5-C ) :   1.2275 B(  0-C , 11-C ) :   1.1584
B(  1-C ,  3-C ) :   1.2293 B(  1-C ,  4-C ) :   1.2275 B(  1-C , 10-C ) :   1.1584
B(  2-C ,  4-C ) :   1.6146 B(  2-C ,  6-H ) :   0.9599 B(  3-C ,  5-C ) :   1.6146
B(  3-C ,  7-H ) :   0.9599 B(  4-C ,  8-H ) :   0.9593 B(  5-C ,  9-H ) :   0.9593
B( 10-C , 12-H ) :   0.9588 B( 10-C , 14-C ) :   1.5348 B( 11-C , 13-H ) :   0.9588
B( 11-C , 15-C ) :   1.5348 B( 14-C , 16-H ) :   0.9659 B( 14-C , 18-H ) :   0.9636
B( 15-C , 17-H ) :   0.9659 B( 15-C , 19-H ) :   0.9636

FINAL SINGLE POINT ENERGY      -379.599098631545

DIPOLE MOMENT
-------------

Method             : SCF
Type of density    : Electron Density
Multiplicity       :   2
Irrep              :   0
Energy             :  -379.5990986315446207 Eh
Relativity type    :
Basis              : AO
                                X                 Y                 Z
Electronic contribution:      0.000000000      -0.000000000      -0.000000000
Nuclear contribution   :      0.000000000       0.000000000       0.000000000
                        -----------------------------------------
Total Dipole Moment    :      0.000000000      -0.000000000      -0.000000000
                        -----------------------------------------
Magnitude (a.u.)       :      0.000000000
Magnitude (Debye)      :      0.000000000

Rotational constants in cm-1:             0.153923             0.022856             0.019901
Rotational constants in MHz :          4614.497946           685.205544           596.614430

                             ****ORCA TERMINATED NORMALLY****
TOTAL RUN TIME: 0 days 0 hours 0 minutes 7 seconds 264 msec
