                         Program Version 6.0.1  -  RELEASE   -
|  1> !  hf sto-3g usesym
|  2>
|  3> * xyz 0 1
|  4>  C       -1.4152533224   0.2302217854   0.0000000000
|  5>  C        1.4152533224  -0.2302217854   0.0000000000
|  6>  C       -0.4951331558   1.3144608674   0.0000000000
|  7>  C        0.4951331558  -1.3144608674   0.0000000000
|  8>  C        0.8894090436   1.0909493743   0.0000000000
|  9>  C       -0.8894090436  -1.0909493743   0.0000000000
| 10>  H       -0.8795511985   2.3437343748   0.0000000000
| 11>  H        0.8795511985  -2.3437343748   0.0000000000
| 12>  H        1.5779041557   1.9450061275   0.0000000000
| 13>  H       -1.5779041557  -1.9450061275   0.0000000000
| 14>  C        2.8845844962  -0.5210893778   0.0000000000
| 15>  C       -2.8845844962   0.5210893778   0.0000000000
| 16>  H        3.1403356810  -1.5919605685   0.0000000000
| 17>  H       -3.1403356810   1.5919605685   0.0000000000
| 18>  C        3.8800428103   0.3822535424   0.0000000000
| 19>  C       -3.8800428103  -0.3822535424   0.0000000000
| 20>  H        3.6946765858   1.4624389570   0.0000000000
| 21>  H       -3.6946765858  -1.4624389570   0.0000000000
| 22>  H        4.9316453546   0.0711049543   0.0000000000
| 23>  H       -4.9316453546  -0.0711049543   0.0000000000
| 24> *
| 25> %pal
| 26>  nprocs 4
| 27> end
| 28> %MaxCore 700
| 29>
| 30>                          ****END OF INPUT****

CARTESIAN COORDINATES (ANGSTROEM)
---------------------------------
  C     -1.415253    0.230222    0.000000
  C      1.415253   -0.230222    0.000000
  C     -0.495133    1.314461    0.000000
  C      0.495133   -1.314461    0.000000
  C      0.889409    1.090949    0.000000
  C     -0.889409   -1.090949    0.000000
  H     -0.879551    2.343734    0.000000
  H      0.879551   -2.343734    0.000000
  H      1.577904    1.945006    0.000000
  H     -1.577904   -1.945006    0.000000
  C      2.884584   -0.521089    0.000000
  C     -2.884584    0.521089    0.000000
  H      3.140336   -1.591961    0.000000
  H     -3.140336    1.591961    0.000000
  C      3.880043    0.382254    0.000000
  C     -3.880043   -0.382254    0.000000
  H      3.694677    1.462439    0.000000
  H     -3.694677   -1.462439    0.000000
  H      4.931645    0.071105    0.000000
  H     -4.931645   -0.071105    0.000000

 Total Charge           Charge          ....    0
 Multiplicity           Mult            ....    1
 Number of Electrons    NEL             ....   70
 Basis Dimension        Dim             ....   60

ORBITAL ENERGIES
----------------

  NO   OCC          E(Eh)            E(eV)    Irrep
   0   2.0000     -11.040586      -300.4296    1-Bu
   1   2.0000     -11.040523      -300.4279    1-Ag
   2   2.0000     -11.031580      -300.1845    2-Bu
   3   2.0000     -11.031579      -300.1845    2-Ag
   4   2.0000     -11.028951      -300.1130    3-Bu
   5   2.0000     -11.028821      -300.1095    3-Ag
   6   2.0000     -11.028607      -300.1037    4-Bu
   7   2.0000     -11.028584      -300.1030    4-Ag
   8   2.0000     -11.017489      -299.8011    5-Bu
   9   2.0000     -11.017489      -299.8011    5-Ag
  10   2.0000      -1.090296       -29.6685    6-Ag
  11   2.0000      -1.020252       -27.7625    6-Bu
  12   2.0000      -0.974925       -26.5291    7-Ag
  13   2.0000      -0.950300       -25.8590    7-Bu
  14   2.0000      -0.909634       -24.7524    8-Bu
  15   2.0000      -0.799882       -21.7659    8-Ag
  16   2.0000      -0.762824       -20.7575    9-Ag
  17   2.0000      -0.727631       -19.7999    9-Bu
  18   2.0000      -0.696776       -18.9602   10-Ag
  19   2.0000      -0.628051       -17.0901   11-Ag
  20   2.0000      -0.605677       -16.4813   10-Bu
  21   2.0000      -0.572941       -15.5905   11-Bu
  22   2.0000      -0.553603       -15.0643   12-Bu
  23   2.0000      -0.553167       -15.0524   12-Ag
  24   2.0000      -0.525357       -14.2957   13-Bu
  25   2.0000      -0.496697       -13.5158   14-Bu
  26   2.0000      -0.492528       -13.4024   13-Ag
  27   2.0000      -0.463728       -12.6187    1-Au
  28   2.0000      -0.446430       -12.1480   15-Bu
  29   2.0000      -0.421652       -11.4737   14-Ag
  30   2.0000      -0.415619       -11.3096   15-Ag
  31   2.0000      -0.376962       -10.2576    1-Bg
  32   2.0000      -0.315127        -8.5750    2-Au
  33   2.0000      -0.278362        -7.5746    2-Bg
  34   2.0000      -0.222189        -6.0461    3-Bg
  35   0.0000       0.198995         5.4149    3-Au
  36   0.0000       0.268517         7.3067    4-Au
  37   0.0000       0.308826         8.4036    4-Bg
  38   0.0000       0.397078        10.8050    5-Au
  39   0.0000       0.521759        14.1978    5-Bg

MULLIKEN ATOMIC CHARGES
-----------------------
   0 C :    0.001813
   1 C :    0.001813
   2 C :   -0.059650
   3 C :   -0.059650
   4 C :   -0.060447
   5 C :   -0.060447
   6 H :    0.058704
   7 H :    0.058704
   8 H :    0.060599
   9 H :    0.060599
  10 C :   -0.055241
  11 C :   -0.055241
  12 H :    0.057635
  13 H :    0.057635
  14 C :   -0.123891
  15 C :   -0.123891
  16 H :    0.059020
  17 H :    0.059020
  18 H :    0.061458
  19 H :    0.061458
Sum of atomic charges:   -0.0000000

LOEWDIN ATOMIC CHARGES
----------------------
   0 C :    0.008727
   1 C :    0.008727
   2 C :   -0.031695
   3 C :   -0.031695
   4 C :   -0.032216
   5 C :   -0.032216
   6 H :    0.028087
   7 H :    0.028087
   8 H :    0.030065
   9 H :    0.030065
  10 C :   -0.022813
  11 C :   -0.022813
  12 H :    0.027052
  13 H :    0.027052
  14 C :   -0.069668
  15 C :   -0.069668
  16 H :    0.030565
  17 H :    0.030565
  18 H :    0.031897
  19 H :    0.031897

  Mayer bond orders larger than 0.100000
B(  0-C ,  1-C ) :   0.1063 B(  0-C ,  2-C ) :   1.3819 B(  0-C ,  5-C ) :   1.3829
B(  0-C , 11-C ) :   1.0412 B(  1-C ,  3-C ) :   1.3819 B(  1-C ,  4-C ) :   1.3829
B(  1-C , 10-C ) :   1.0412 B(  2-C ,  3-C ) :   0.1029 B(  2-C ,  4-C ) :   1.4572
B(  2-C ,  6-H ) :   0.9696 B(  3-C ,  5-C ) :   1.4572 B(  3-C ,  7-H ) :   0.9696
B(  4-C ,  5-C ) :   0.1040 B(  4-C ,  8-H ) :   0.9686 B(  5-C ,  9-H ) :   0.9686
B( 10-C , 12-H ) :   0.9677 B( 10-C , 14-C ) :   1.9305 B( 11-C , 13-H ) :   0.9677
B( 11-C , 15-C ) :   1.9305 B( 14-C , 16-H ) :   0.9738 B( 14-C , 18-H ) :   0.9758
B( 15-C , 17-H ) :   0.9738 B( 15-C , 19-H ) :   0.9758

FINAL SINGLE POINT ENERGY      -379.768962914202

DIPOLE MOMENT
-------------

Method             : SCF
Type of density    : Electron Density
Multiplicity       :   1
Irrep              :   0
Energy             :  -379.7689629142016656 Eh
Relativity type    :
Basis              : AO
                                X                 Y                 Z
Electronic contribution:      0.000000000      -0.000000000      -0.000000000
Nuclear contribution   :      0.000000000       0.000000000       0.000000000
                        -----------------------------------------
Total Dipole Moment    :      0.000000000      -0.000000000      -0.000000000
                        -----------------------------------------
Magnitude (a.u.)       :      0.000000000
Magnitude (Debye)      :      0.000000000

Rotational constants in cm-1:             0.153923             0.022856             0.019901
Rotational constants in MHz :          4614.497946           685.205544           596.614430

                             ****ORCA TERMINATED NORMALLY****
TOTAL RUN TIME: 0 days 0 hours 0 minutes 6 seconds 184 msec
