                               Psi4 1.7 release

  ==> Input File <==

--------------------------------------------------------------------------
molecule dvb {
    0 1
    C    -1.4152533224   0.2302217854   0.0000000000
    C     1.4152533224  -0.2302217854   0.0000000000
    C    -0.4951331558   1.3144608674   0.0000000000
    C     0.4951331558  -1.3144608674   0.0000000000
    C     0.8894090436   1.0909493743   0.0000000000
    C    -0.8894090436  -1.0909493743   0.0000000000
    H    -0.8795511985   2.3437343748   0.0000000000
    H     0.8795511985  -2.3437343748   0.0000000000
    H     1.5779041557   1.9450061275   0.0000000000
    H    -1.5779041557  -1.9450061275   0.0000000000
    C     2.8845844962  -0.5210893778   0.0000000000
    C    -2.8845844962   0.5210893778   0.0000000000
    H     3.1403356810  -1.5919605685   0.0000000000
    H    -3.1403356810   1.5919605685   0.0000000000
    C     3.8800428103   0.3822535424   0.0000000000
    C    -3.8800428103  -0.3822535424   0.0000000000
    H     3.6946765858   1.4624389570   0.0000000000
    H    -3.6946765858  -1.4624389570   0.0000000000
    H     4.9316453546   0.0711049543   0.0000000000
    H    -4.9316453546  -0.0711049543   0.0000000000
}

set {
    basis sto-3g
    fd_project true
}

frequencies('b3lyp')
--------------------------------------------------------------------------

                               Psi4 1.7 release
    Molecular point group: c2h
  Charge       = 0
  Multiplicity = 1
  Basis Set: STO-3G
    Blend: STO-3G
  Basis Set: (STO-3G AUX)
    Blend: DEF2-UNIVERSAL-JKFIT
  @DF-RKS Final Energy:  -382.31091156437407
    Total Energy =                       -382.3109115643741234
 Dipole X            :          0.0000000            0.0000000            0.0000000
 Dipole Y            :          0.0000000            0.0000000            0.0000000
 Dipole Z            :          0.0000000            0.0000000            0.0000000
 Magnitude           :                                                    0.0000000
    Molecular point group: c2h
  Basis Set: STO-3G
    Blend: STO-3G
  Basis Set: (STO-3G AUX)
    Blend: DEF2-UNIVERSAL-JKFIT
                               Psi4 1.7 release
  Basis Set: STO-3G
    Blend: STO-3G
  Basis Set: (STO-3G AUX)
    Blend: DEF2-UNIVERSAL-JKFIT
  @DF-RKS Final Energy:  -382.31091223044257
    Total Energy =                       -382.3109122304425682
  Basis Set: STO-3G
    Blend: STO-3G
  Basis Set: (STO-3G AUX)
    Blend: DEF2-UNIVERSAL-JKFIT
                               Psi4 1.7 release
  Basis Set: STO-3G
    Blend: STO-3G
  @DF-RKS Final Energy:  -382.31090944349467
    Total Energy =                       -382.3109094434946087
                               Psi4 1.7 release
  @DF-RKS Final Energy:  -382.31091110614017
    Total Energy =                       -382.3109111061401109
                               Psi4 1.7 release
  @DF-RKS Final Energy:  -382.31091023185598
    Total Energy =                       -382.3109102318560417
                               Psi4 1.7 release
  @DF-RKS Final Energy:  -382.31090816700600
    Total Energy =                       -382.3109081670060050
                               Psi4 1.7 release
  @DF-RKS Final Energy:  -382.31091316770863
    Total Energy =                       -382.3109131677086907
                               Psi4 1.7 release
  @DF-RKS Final Energy:  -382.31091127753632
    Total Energy =                       -382.3109112775363769
                               Psi4 1.7 release
  @DF-RKS Final Energy:  -382.31091012984501
    Total Energy =                       -382.3109101298450128
                               Psi4 1.7 release
  @DF-RKS Final Energy:  -382.31091028407621
    Total Energy =                       -382.3109102840761580
                               Psi4 1.7 release
  @DF-RKS Final Energy:  -382.31091109508714
    Total Energy =                       -382.3109110950870786
                               Psi4 1.7 release
  @DF-RKS Final Energy:  -382.31091360004041
    Total Energy =                       -382.3109136000404646
                               Psi4 1.7 release
  @DF-RKS Final Energy:  -382.31090784927642
    Total Energy =                       -382.3109078492764752
                               Psi4 1.7 release
  @DF-RKS Final Energy:  -382.31091104590558
    Total Energy =                       -382.3109110459055842
                               Psi4 1.7 release
  @DF-RKS Final Energy:  -382.31090938311348
    Total Energy =                       -382.3109093831135397
                               Psi4 1.7 release
  @DF-RKS Final Energy:  -382.31090789303693
    Total Energy =                       -382.3109078930368696
                               Psi4 1.7 release
  @DF-RKS Final Energy:  -382.31090594579172
    Total Energy =                       -382.3109059457916601
                               Psi4 1.7 release
  @DF-RKS Final Energy:  -382.31091089006298
    Total Energy =                       -382.3109108900629849
                               Psi4 1.7 release
  @DF-RKS Final Energy:  -382.31090706946912
    Total Energy =                       -382.3109070694690672
                               Psi4 1.7 release
  @DF-RKS Final Energy:  -382.31090261901358
    Total Energy =                       -382.3109026190135182
                               Psi4 1.7 release
                               Psi4 1.7 release
                               Psi4 1.7 release
                               Psi4 1.7 release
                               Psi4 1.7 release
                               Psi4 1.7 release
                               Psi4 1.7 release
                               Psi4 1.7 release
                               Psi4 1.7 release
                               Psi4 1.7 release
                               Psi4 1.7 release
                               Psi4 1.7 release
                               Psi4 1.7 release
                               Psi4 1.7 release
                               Psi4 1.7 release
                               Psi4 1.7 release
                               Psi4 1.7 release
                               Psi4 1.7 release
                               Psi4 1.7 release
                               Psi4 1.7 release
                               Psi4 1.7 release
                               Psi4 1.7 release
                               Psi4 1.7 release
                               Psi4 1.7 release
                               Psi4 1.7 release
                               Psi4 1.7 release
                               Psi4 1.7 release
                               Psi4 1.7 release
                               Psi4 1.7 release
                               Psi4 1.7 release
                               Psi4 1.7 release
                               Psi4 1.7 release
                               Psi4 1.7 release
                               Psi4 1.7 release
                               Psi4 1.7 release
  @DF-RKS Final Energy:  -382.31091112500411
    Total Energy =                       -382.3109111250040542
                               Psi4 1.7 release
  @DF-RKS Final Energy:  -382.31091128348680
    Total Energy =                       -382.3109112834868029
                               Psi4 1.7 release
  @DF-RKS Final Energy:  -382.31091064956064
    Total Energy =                       -382.3109106495606397
                               Psi4 1.7 release
  @DF-RKS Final Energy:  -382.31091074126431
    Total Energy =                       -382.3109107412643652
                               Psi4 1.7 release
  @DF-RKS Final Energy:  -382.31091072632864
    Total Energy =                       -382.3109107263285864
                               Psi4 1.7 release
  @DF-RKS Final Energy:  -382.31091056986901
    Total Energy =                       -382.3109105698689518
                               Psi4 1.7 release
  @DF-RKS Final Energy:  -382.31091078291468
    Total Energy =                       -382.3109107829146751
                               Psi4 1.7 release
  @DF-RKS Final Energy:  -382.31091074135219
    Total Energy =                       -382.3109107413521883
                               Psi4 1.7 release
  @DF-RKS Final Energy:  -382.31091024833273
    Total Energy =                       -382.3109102483327320
                               Psi4 1.7 release
  @DF-RKS Final Energy:  -382.31090707035742
    Total Energy =                       -382.3109070703574730
                               Psi4 1.7 release
  @DF-RKS Final Energy:  -382.31090907478648
    Total Energy =                       -382.3109090747864229
                               Psi4 1.7 release
  @DF-RKS Final Energy:  -382.31090820438487
    Total Energy =                       -382.3109082043848161
                               Psi4 1.7 release
  @DF-RKS Final Energy:  -382.31091047420466
    Total Energy =                       -382.3109104742047180
                               Psi4 1.7 release
  @DF-RKS Final Energy:  -382.31091007491227
    Total Energy =                       -382.3109100749123286
                               Psi4 1.7 release
  @DF-RKS Final Energy:  -382.31091053708371
    Total Energy =                       -382.3109105370836573
                               Psi4 1.7 release
  @DF-RKS Final Energy:  -382.31090694200435
    Total Energy =                       -382.3109069420043511
                               Psi4 1.7 release
  @DF-RKS Final Energy:  -382.31090811106429
    Total Energy =                       -382.3109081110642933
                               Psi4 1.7 release
  @DF-RKS Final Energy:  -382.31090787158587
    Total Energy =                       -382.3109078715858686
  Basis Set: (STO-3G AUX)
    Blend: DEF2-UNIVERSAL-JKFIT
                               Psi4 1.7 release
  Basis Set: STO-3G
    Blend: STO-3G
  Basis Set: (STO-3G AUX)
    Blend: DEF2-UNIVERSAL-JKFIT
  @DF-RKS Final Energy:  -382.31090869347048
    Total Energy =                       -382.3109086934704806
  Basis Set: STO-3G
    Blend: STO-3G
  Basis Set: (STO-3G AUX)
    Blend: DEF2-UNIVERSAL-JKFIT
                               Psi4 1.7 release
    Molecular point group: cs
  Charge       = 0
  Multiplicity = 1
  Basis Set: STO-3G
    Blend: STO-3G
  Basis Set: (STO-3G AUX)
    Blend: DEF2-UNIVERSAL-JKFIT

    Orbital Energies [Eh]
    ---------------------

    Doubly Occupied:

       1Ap   -10.020496     2Ap   -10.020447     3Ap   -10.008239
       4Ap   -10.008182     5Ap   -10.007157     6Ap   -10.007155
       7Ap   -10.006509     8Ap   -10.006367     9Ap    -9.992486
      10Ap    -9.992386    11Ap    -0.809491    12Ap    -0.753964
      13Ap    -0.717890    14Ap    -0.699952    15Ap    -0.667344
      16Ap    -0.588532    17Ap    -0.559173    18Ap    -0.531445
      19Ap    -0.509952    20Ap    -0.457609    21Ap    -0.439210
      22Ap    -0.411039    23Ap    -0.397707    24Ap    -0.395953
      25Ap    -0.374446    26Ap    -0.350956    27Ap    -0.347032
       1App   -0.324484    28Ap    -0.311085    29Ap    -0.293008
      30Ap    -0.287520     2App   -0.263470     3App   -0.212353
       4App   -0.195182     5App   -0.153011

  @DF-RKS Final Energy:  -382.31090841982137

   => Energetics <=

    Nuclear Repulsion Energy =            445.9369848719726406
    One-Electron Energy =               -1400.6437998395131217
    Two-Electron Energy =                 619.1799554067124518
    DFT Exchange-Correlation Energy =     -46.7840488589933301
    Empirical Dispersion Energy =           0.0000000000000000
    VV10 Nonlocal Energy =                  0.0000000000000000
    Total Energy =                       -382.3109084198213736
 Dipole X            :         -0.0010485            0.0000000           -0.0010485
 Dipole Y            :         -0.0000534            0.0000000           -0.0000534
 Dipole Z            :          0.0000000            0.0000000            0.0000000
 Magnitude           :                                                    0.0010499
    Molecular point group: cs

    Geometry (in Bohr), charge = 0, multiplicity = 1:

       Center              X                  Y                   Z               Mass
    ------------   -----------------  -----------------  -----------------  -----------------
         C           -2.674441177480     0.435056122520     0.000000000000    12.000000000000
         C            2.674441177480    -0.435056122520     0.000000000000    12.000000000000
         C           -0.935666060096     2.483971042018     0.000000000000    12.000000000000
         C            0.935666060096    -2.483971042018     0.000000000000    12.000000000000
         C            1.680739505909     2.061595534167     0.000000000000    12.000000000000
         C           -1.680739505909    -2.061595534167     0.000000000000    12.000000000000
         H           -1.662110878483     4.429016079193     0.000000000000     1.007825032230
         H            1.662110878483    -4.429016079193     0.000000000000     1.007825032230
         H            2.981806706495     3.675528893312     0.000000000000     1.007825032230
         H           -2.981806706495    -3.675528893312     0.000000000000     1.007825032230
         C            5.451074683560    -0.984716210927     0.000000000000    12.000000000000
         C           -5.451074683560     0.984716210927     0.000000000000    12.000000000000
         H            5.934374379093    -3.008369476993     0.000000000000     1.007825032230
         H           -5.934374379093     3.008369476993     0.000000000000     1.007825032230
         C            7.332218266519     0.722354505622     0.000000000000    12.000000000000
         C           -7.332218266519    -0.722354505622     0.000000000000    12.000000000000
         H            6.981926869304     2.761118828188     0.000000000000     1.007825032230
         H           -6.981926869304    -2.766099379672     0.000000000000     1.007825032230
         H            9.319459068080     0.136859165532     0.000000000000     1.007825032230
         H           -9.319459068080    -0.131878614048     0.000000000000     1.007825032230

  Basis Set: STO-3G
    Blend: STO-3G
  Basis Set: (STO-3G AUX)
    Blend: DEF2-UNIVERSAL-JKFIT

  -Total Gradient:
     Atom            X                  Y                   Z
    ------   -----------------  -----------------  -----------------
       1        0.000655116578     0.000210358519     0.000000000000
       2       -0.000668721678    -0.000229096201     0.000000000000
       3       -0.001229474605     0.000303175996     0.000000000000
       4        0.001224290397    -0.000299545417     0.000000000000
       5       -0.000179003580     0.001314458829     0.000000000000
       6        0.000174672709    -0.001320335724     0.000000000000
       7        0.000132212181     0.000147832725     0.000000000000
       8       -0.000132841268    -0.000147278948     0.000000000000
       9        0.000274265890    -0.000774143845     0.000000000000
      10       -0.000277572955     0.000773401549     0.000000000000
      11       -0.000655030692     0.000537327432     0.000000000000
      12        0.000471517713    -0.000421086548     0.000000000000
      13        0.000565400902    -0.000286297880     0.000000000000
      14       -0.000553957273     0.000299107374     0.000000000000
      15        0.000093579441     0.000565680006     0.000000000000
      16        0.000103959648     0.000928358388     0.000000000000
      17       -0.000146762514    -0.001130545960     0.000000000000
      18        0.000605586498    -0.000932621659     0.000000000000
      19        0.000153449084     0.000105506536     0.000000000000
      20       -0.000610670569     0.000355746293     0.000000000000

  Vibration                       7                   8                   9
  Freq [cm^-1]                 46.6838             79.5765             151.5663
  Irrep                           Au                  Bg                  Au
  Reduced mass [u]              3.1548              2.4926              2.1337
  Force const [mDyne/A]         0.0041              0.0093              0.0289

  IR activ [km/mol]             0.0281              0.0000              0.3505

  Vibration                       10                  11                  12
  Freq [cm^-1]                 180.8397            265.6301            301.3208
  Irrep                           Bu                  Ag                  Bg
  Reduced mass [u]              3.3968              3.2327              2.3594
  Force const [mDyne/A]         0.0655              0.1344              0.1262

  IR activ [km/mol]             0.2712              0.0000              0.0000

  Vibration                       13                  14                  15
  Freq [cm^-1]                 407.8786            424.2832            468.5574
  Irrep                           Ag                  Au                  Au
  Reduced mass [u]              4.8017              3.0274              2.2447
  Force const [mDyne/A]         0.4707              0.3211              0.2904

  IR activ [km/mol]             0.0000              0.1021              5.8475

  Vibration                       16                  17                  18
  Freq [cm^-1]                 487.9728            579.0307            657.5838
  Irrep                           Bu                  Ag                  Bg
  Reduced mass [u]              3.2477              2.8332              2.0695
  Force const [mDyne/A]         0.4556              0.5597              0.5273

  IR activ [km/mol]             1.9377              0.0000              0.0000

  Vibration                       19                  20                  21
  Freq [cm^-1]                 673.3554            707.0822            734.9219
  Irrep                           Ag                  Au                  Bu
  Reduced mass [u]              6.9043              1.4771              3.1885
  Force const [mDyne/A]         1.8444              0.4351              1.0147

  IR activ [km/mol]             0.0000              0.4662              4.3283

  Vibration                       22                  23                  24
  Freq [cm^-1]                 810.2919            862.7837            893.7062
  Irrep                           Bg                  Ag                  Bg
  Reduced mass [u]              3.2997              4.4568              1.2564
  Force const [mDyne/A]         1.2764              1.9547              0.5912

  IR activ [km/mol]             0.0000              0.0000              0.0000

  Vibration                       25                  26                  27
  Freq [cm^-1]                 896.0325            980.5533            980.6570
  Irrep                           Au                  Bg                  Au
  Reduced mass [u]              1.7054              1.3628              1.3651
  Force const [mDyne/A]         0.8067              0.7720              0.7735

  IR activ [km/mol]            26.2103              0.0000             36.5680

  Vibration                       28                  29                  30
  Freq [cm^-1]                1017.5709           1036.2244           1073.4349
  Irrep                           Bg                  Au                  Bu
  Reduced mass [u]              1.2595              1.3340              2.9211
  Force const [mDyne/A]         0.7684              0.8439              1.9831

  IR activ [km/mol]             0.0000              0.0069              0.4766

  Vibration                       31                  32                  33
  Freq [cm^-1]                1102.0125           1107.5388           1107.6889
  Irrep                           Bu                  Au                  Bg
  Reduced mass [u]              1.4432              1.0904              1.0920
  Force const [mDyne/A]         1.0326              0.7881              0.7894

  IR activ [km/mol]             8.8453             13.1622              0.0000

  Vibration                       34                  35                  36
  Freq [cm^-1]                1110.5556           1203.7816           1260.9264
  Irrep                           Ag                  Bu                  Ag
  Reduced mass [u]              1.5033              1.3464              1.2363
  Force const [mDyne/A]         1.0924              1.1495              1.1581

  IR activ [km/mol]             0.0000              1.4882              0.0000

  Vibration                       37                  38                  39
  Freq [cm^-1]                1284.3604           1296.2903           1350.1023
  Irrep                           Bu                  Ag                  Bu
  Reduced mass [u]              2.3333              2.8637              5.3195
  Force const [mDyne/A]         2.2677              2.8352              5.7129

  IR activ [km/mol]             0.0532              0.0000              9.0257

  Vibration                       40                  41                  42
  Freq [cm^-1]                1398.5820           1422.1068           1427.3900
  Irrep                           Ag                  Bu                  Ag
  Reduced mass [u]              1.4152              1.3354              1.2553
  Force const [mDyne/A]         1.6309              1.5912              1.5069

  IR activ [km/mol]             0.0000              8.4469              0.0000

  Vibration                       43                  44                  45
  Freq [cm^-1]                1514.2881           1565.4525           1575.2880
  Irrep                           Bu                  Ag                  Bu
  Reduced mass [u]              2.5668              1.3014              1.2953
  Force const [mDyne/A]         3.4678              1.8791              1.8939

  IR activ [km/mol]            18.9064              0.0000              0.5797

  Vibration                       46                  47                  48
  Freq [cm^-1]                1639.6515           1690.9646           1738.3953
  Irrep                           Bu                  Ag                  Ag
  Reduced mass [u]              2.4925              5.1101              5.6183
  Force const [mDyne/A]         3.9480              8.6090             10.0036

  IR activ [km/mol]            15.2960              0.0000              0.0000

  Vibration                       49                  50                  51
  Freq [cm^-1]                1814.6501           1815.7140           3393.7996
  Irrep                           Ag                  Bu                  Bu
  Reduced mass [u]              3.9751              3.9385              1.0629
  Force const [mDyne/A]         7.7122              7.6503              7.2130

  IR activ [km/mol]             0.0000              1.5088             98.4556

  Vibration                       52                  53                  54
  Freq [cm^-1]                3394.6146           3432.6105           3432.9399
  Irrep                           Ag                  Bu                  Ag
  Reduced mass [u]              1.0628              1.0978              1.0979
  Force const [mDyne/A]         7.2159              7.6215              7.6231

  IR activ [km/mol]             0.0000              3.6654              0.0000

  Vibration                       55                  56                  57
  Freq [cm^-1]                3447.7087           3451.1562           3471.2826
  Irrep                           Bu                  Ag                  Bu
  Reduced mass [u]              1.0923              1.0923              1.0980
  Force const [mDyne/A]         7.6496              7.6650              7.7954

  IR activ [km/mol]             1.2820              0.0000              5.5584

  Vibration                       58                  59                  60
  Freq [cm^-1]                3473.8013           3546.3872           3546.3968
  Irrep                           Ag                  Ag                  Bu
  Reduced mass [u]              1.0988              1.1183              1.1183
  Force const [mDyne/A]         7.8124              8.2866              8.2867

  IR activ [km/mol]             0.0000              0.0000              0.0234

  ==> Thermochemistry Components <==

  Entropy, S
    Electronic S            0.000 [cal/(mol K)]        0.000 [J/(mol K)]       0.00000000 [mEh/K] (multiplicity = 1)
    Translational S        40.502 [cal/(mol K)]      169.460 [J/(mol K)]       0.06454379 [mEh/K] (mol. weight = 130.0783 [u], P = 101325.00 [Pa])
    Rotational S           28.143 [cal/(mol K)]      117.751 [J/(mol K)]       0.04484891 [mEh/K] (symmetry no. = 2)
    Vibrational S          23.436 [cal/(mol K)]       98.056 [J/(mol K)]       0.03734741 [mEh/K]
  Total S                  92.081 [cal/(mol K)]      385.266 [J/(mol K)]       0.14674011 [mEh/K]
  Correction S              0.000 [cal/(mol K)]        0.000 [J/(mol K)]       0.00000000 [mEh/K]

  Constant volume heat capacity, Cv
    Electronic Cv           0.000 [cal/(mol K)]        0.000 [J/(mol K)]       0.00000000 [mEh/K]
    Translational Cv        2.981 [cal/(mol K)]       12.472 [J/(mol K)]       0.00475022 [mEh/K]
    Rotational Cv           2.981 [cal/(mol K)]       12.472 [J/(mol K)]       0.00475022 [mEh/K]
    Vibrational Cv         27.583 [cal/(mol K)]      115.407 [J/(mol K)]       0.04395635 [mEh/K]
  Total Cv                 33.545 [cal/(mol K)]      140.351 [J/(mol K)]       0.05345678 [mEh/K]
  Correction Cv             0.000 [cal/(mol K)]        0.000 [J/(mol K)]       0.00000000 [mEh/K]

  Constant pressure heat capacity, Cp
    Electronic Cp           0.000 [cal/(mol K)]        0.000 [J/(mol K)]       0.00000000 [mEh/K]
    Translational Cp        4.968 [cal/(mol K)]       20.786 [J/(mol K)]       0.00791703 [mEh/K]
    Rotational Cp           2.981 [cal/(mol K)]       12.472 [J/(mol K)]       0.00475022 [mEh/K]
    Vibrational Cp         27.583 [cal/(mol K)]      115.407 [J/(mol K)]       0.04395635 [mEh/K]
  Total Cp                 35.532 [cal/(mol K)]      148.665 [J/(mol K)]       0.05662359 [mEh/K]
  Correction Cp             0.000 [cal/(mol K)]        0.000 [J/(mol K)]       0.00000000 [mEh/K]

  ==> Thermochemistry Energy Analysis <==

  Raw electronic energy, E0
  Total E0, Electronic energy at well bottom at 0 [K]                 -382.31091156 [Eh]

  Zero-point energy, ZPE_vib = Sum_i nu_i / 2
    Electronic ZPE          0.000 [kcal/mol]        0.000 [kJ/mol]       0.00000000 [Eh]
    Translational ZPE       0.000 [kcal/mol]        0.000 [kJ/mol]       0.00000000 [Eh]
    Rotational ZPE          0.000 [kcal/mol]        0.000 [kJ/mol]       0.00000000 [Eh]
    Vibrational ZPE       111.126 [kcal/mol]      464.952 [kJ/mol]       0.17709102 [Eh]       38866.987 [cm^-1]
  Correction ZPE          111.126 [kcal/mol]      464.952 [kJ/mol]       0.17709102 [Eh]       38866.987 [cm^-1]
  Total ZPE, Electronic energy at 0 [K]                               -382.13382054 [Eh]

  Thermal Energy, E (includes ZPE)
    Electronic E            0.000 [kcal/mol]        0.000 [kJ/mol]       0.00000000 [Eh]
    Translational E         0.889 [kcal/mol]        3.718 [kJ/mol]       0.00141628 [Eh]
    Rotational E            0.889 [kcal/mol]        3.718 [kJ/mol]       0.00141628 [Eh]
    Vibrational E         114.929 [kcal/mol]      480.863 [kJ/mol]       0.18315090 [Eh]
  Correction E            116.706 [kcal/mol]      488.299 [kJ/mol]       0.18598345 [Eh]
  Total E, Electronic energy at  298.15 [K]                           -382.12492811 [Eh]

  Enthalpy, H_trans = E_trans + k_B * T
    Electronic H            0.000 [kcal/mol]        0.000 [kJ/mol]       0.00000000 [Eh]
    Translational H         1.481 [kcal/mol]        6.197 [kJ/mol]       0.00236046 [Eh]
    Rotational H            0.889 [kcal/mol]        3.718 [kJ/mol]       0.00141628 [Eh]
    Vibrational H         114.929 [kcal/mol]      480.863 [kJ/mol]       0.18315090 [Eh]
  Correction H            117.299 [kcal/mol]      490.778 [kJ/mol]       0.18692764 [Eh]
  Total H, Enthalpy at  298.15 [K]                                    -382.12398393 [Eh]

  Gibbs free energy, G = H - T * S
    Electronic G            0.000 [kcal/mol]        0.000 [kJ/mol]       0.00000000 [Eh]
    Translational G       -10.594 [kcal/mol]      -44.327 [kJ/mol]      -0.01688327 [Eh]
    Rotational G           -7.502 [kcal/mol]      -31.389 [kJ/mol]      -0.01195543 [Eh]
    Vibrational G         107.942 [kcal/mol]      451.627 [kJ/mol]       0.17201577 [Eh]
  Correction G             89.845 [kcal/mol]      375.911 [kJ/mol]       0.14317707 [Eh]
  Total G, Free enthalpy at  298.15 [K]                               -382.16773449 [Eh]

*** Psi4 exiting successfully. Buy a developer a beer!
